
    -----------------------------------------------------------------------
          Psi4: An Open-Source Ab Initio Electronic Structure Package
                               Psi4 1.6 release

                         Git: Rev {HEAD} 77475b5 


    D. G. A. Smith, L. A. Burns, A. C. Simmonett, R. M. Parrish,
    M. C. Schieber, R. Galvelis, P. Kraus, H. Kruse, R. Di Remigio,
    A. Alenaizan, A. M. James, S. Lehtola, J. P. Misiewicz, M. Scheurer,
    R. A. Shaw, J. B. Schriber, Y. Xie, Z. L. Glick, D. A. Sirianni,
    J. S. O'Brien, J. M. Waldrop, A. Kumar, E. G. Hohenstein,
    B. P. Pritchard, B. R. Brooks, H. F. Schaefer III, A. Yu. Sokolov,
    K. Patkowski, A. E. DePrince III, U. Bozkaya, R. A. King,
    F. A. Evangelista, J. M. Turney, T. D. Crawford, C. D. Sherrill,
    J. Chem. Phys. 152(18) 184108 (2020). https://doi.org/10.1063/5.0006002

                            Additional Code Authors
    E. T. Seidl, C. L. Janssen, E. F. Valeev, M. L. Leininger,
    J. F. Gonthier, R. M. Richard, H. R. McAlexander, M. Saitow, X. Wang,
    P. Verma, M. H. Lechner, and A. Jiang

             Previous Authors, Complete List of Code Contributors,
                       and Citations for Specific Modules
    https://github.com/psi4/psi4/blob/master/codemeta.json
    https://github.com/psi4/psi4/graphs/contributors
    http://psicode.org/psi4manual/master/introduction.html#citing-psifour

    -----------------------------------------------------------------------


    Psi4 started on: Thursday, 03 November 2022 05:16AM

    Process ID: 283
    Host:       LAPTOP-VQ1QITOU
    PSIDATADIR: /home/timgould/psi4conda/share/psi4
    Memory:     500.0 MiB
    Threads:    1
    
  ==> Input File <==

--------------------------------------------------------------------------
X = """
    C           -0.982670359616    -0.237182946316     0.048843788460    12.000000000000
    C           -0.903195686167    -1.619252449463     0.120151838033    12.000000000000
    C           -2.056653979502    -2.359718604650     0.332272668849    12.000000000000
    C           -3.284574318298    -1.735105444927     0.471539043501    12.000000000000
    C           -3.357939604935    -0.353002560472     0.396623090792    12.000000000000
    C           -2.212558280228     0.395069853837     0.186755022549    12.000000000000
    N            1.811443497294    -0.458797905322    -0.314783199784    14.003074004430
    SE           0.542969771898     0.875404044485    -0.252869156381    79.916521800000
    H            4.492663902265     0.976764112359     0.674454489765     1.007825032230
    H            3.720358607393    -0.995021531985    -0.135953390305     1.007825032230
    C            3.011934571549    -0.185018222271    -0.057720565464    12.000000000000
    N            3.583620112622     1.011818947694     0.268739910224    14.003074004430
    H            2.992742646946     1.722415469072     0.648146718897     1.007825032230
    H           -4.172619534058    -2.316164887330     0.635268343346     1.007825032230
    H           -2.282244671255     1.466624431606     0.131147344335     1.007825032230
    H            0.043805557571    -2.105920379272     0.008138335230     1.007825032230
    H           -1.990730482561    -3.430684653470     0.386878411739     1.007825032230
    H           -4.304076406951     0.144774778210     0.501216308489     1.007825032230
"""

Geom = "0 1\n\n"
for L in X.split('\n'):
    Row = L.split()
    if len(Row)==5:
        El,x,y,z,_ = tuple(Row)
        x,y,z = float(x), float(y), float(z)
        Geom += "%2s %9.5f  %9.5f  %9.5f \n"%(El, x, y, z)
        
print(Geom)



geometry(Geom)

set basis def2-msvp
set opt_coordinates both

optimize('scf')

--------------------------------------------------------------------------

Scratch directory: /tmp/
gradient() will perform analytic gradient computation.

*** tstart() called on LAPTOP-VQ1QITOU
*** at Thu Nov  3 05:16:36 2022

   => Loading Basis Set <=

    Name: DEF2-MSVP
    Role: ORBITAL
    Keyword: BASIS
    atoms 1-6, 11     entry C          line   101 file /home/timgould/psi4conda/share/psi4/basis/def2-msvp.gbs 
    atoms 7, 12       entry N          line   123 file /home/timgould/psi4conda/share/psi4/basis/def2-msvp.gbs 
    atoms 8           entry SE         line  1061 file /home/timgould/psi4conda/share/psi4/basis/def2-msvp.gbs 
    atoms 9-10, 13-18 entry H          line    26 file /home/timgould/psi4conda/share/psi4/basis/def2-msvp.gbs 


         ---------------------------------------------------------
                                   SCF
               by Justin Turney, Rob Parrish, Andy Simmonett
                          and Daniel G. A. Smith
                              RHF Reference
                        1 Threads,    500 MiB Core
         ---------------------------------------------------------

  ==> Geometry <==

    Molecular point group: c1
    Full point group: C1

    Geometry (in Angstrom), charge = 0, multiplicity = 1:

       Center              X                  Y                   Z               Mass       
    ------------   -----------------  -----------------  -----------------  -----------------
         C           -0.982669699724    -0.237178346654     0.048840332285    12.000000000000
         C           -0.903199699724    -1.619248346654     0.120150332285    12.000000000000
         C           -2.056649699724    -2.359718346654     0.332270332285    12.000000000000
         C           -3.284569699724    -1.735108346654     0.471540332285    12.000000000000
         C           -3.357939699724    -0.352998346654     0.396620332285    12.000000000000
         C           -2.212559699724     0.395071653346     0.186760332285    12.000000000000
         N            1.811440300276    -0.458798346654    -0.314779667715    14.003074004430
         SE           0.542970300276     0.875401653346    -0.252869667715    79.916521800000
         H            4.492660300276     0.976761653346     0.674450332285     1.007825032230
         H            3.720360300276    -0.995018346654    -0.135949667715     1.007825032230
         C            3.011930300276    -0.185018346654    -0.057719667715    12.000000000000
         N            3.583620300276     1.011821653346     0.268740332285    14.003074004430
         H            2.992740300276     1.722421653346     0.648150332285     1.007825032230
         H           -4.172619699724    -2.316158346654     0.635270332285     1.007825032230
         H           -2.282239699724     1.466621653346     0.131150332285     1.007825032230
         H            0.043810300276    -2.105918346654     0.008140332285     1.007825032230
         H           -1.990729699724    -3.430678346654     0.386880332285     1.007825032230
         H           -4.304079699724     0.144771653346     0.501220332285     1.007825032230

  Running in c1 symmetry.

  Rotational constants: A =      0.09752  B =      0.01790  C =      0.01540 [cm^-1]
  Rotational constants: A =   2923.71274  B =    536.75686  C =    461.55168 [MHz]
  Nuclear repulsion =  754.217107713566747

  Charge       = 0
  Multiplicity = 1
  Electrons    = 98
  Nalpha       = 49
  Nbeta        = 49

  ==> Algorithm <==

  SCF Algorithm Type is DF.
  DIIS enabled.
  MOM disabled.
  Fractional occupation disabled.
  Guess Type is SAD.
  Energy threshold   = 1.00e-08
  Density threshold  = 1.00e-08
  Integral threshold = 1.00e-12

  ==> Primary Basis <==

  Basis Set: DEF2-MSVP
    Blend: DEF2-MSVP
    Number of shells: 91
    Number of basis functions: 183
    Number of Cartesian functions: 195
    Spherical Harmonics?: true
    Max angular momentum: 2

   => Loading Basis Set <=

    Name: (DEF2-MSVP AUX)
    Role: JKFIT
    Keyword: DF_BASIS_SCF
    atoms 1-6, 11     entry C          line   198 file /home/timgould/psi4conda/share/psi4/basis/def2-universal-jkfit.gbs 
    atoms 7, 12       entry N          line   258 file /home/timgould/psi4conda/share/psi4/basis/def2-universal-jkfit.gbs 
    atoms 8           entry SE         line  2995 file /home/timgould/psi4conda/share/psi4/basis/def2-universal-jkfit.gbs 
    atoms 9-10, 13-18 entry H          line    18 file /home/timgould/psi4conda/share/psi4/basis/def2-universal-jkfit.gbs 

  ==> Integral Setup <==

  DFHelper Memory: AOs need 0.245 GiB; user supplied 0.366 GiB. Using in-core AOs.

  ==> MemDFJK: Density-Fitted J/K Matrices <==

    J tasked:                   Yes
    K tasked:                   Yes
    wK tasked:                   No
    OpenMP threads:               1
    Memory [MiB]:               375
    Algorithm:                 Core
    Schwarz Cutoff:           1E-12
    Mask sparsity (%):      16.0709
    Fitting Condition:        1E-10

   => Auxiliary Basis Set <=

  Basis Set: (DEF2-MSVP AUX)
    Blend: DEF2-UNIVERSAL-JKFIT
    Number of shells: 333
    Number of basis functions: 1089
    Number of Cartesian functions: 1340
    Spherical Harmonics?: true
    Max angular momentum: 5

  Minimum eigenvalue in the overlap matrix is 4.6624646230E-04.
  Reciprocal condition number of the overlap matrix is 8.1158027626E-05.
    Using symmetric orthogonalization.

  ==> Pre-Iterations <==

  SCF Guess: Superposition of Atomic Densities via on-the-fly atomic UHF (no occupation information).

   -------------------------
    Irrep   Nso     Nmo    
   -------------------------
     A        183     183 
   -------------------------
    Total     183     183
   -------------------------

  ==> Iterations <==

                           Total Energy        Delta E     RMS |[F,P]|

   @DF-RHF iter SAD: -2774.51588246778192   -2.77452e+03   0.00000e+00 
   @DF-RHF iter   1: -2777.57471216267641   -3.05883e+00   8.65017e-03 ADIIS/DIIS
   @DF-RHF iter   2: -2778.00382797453949   -4.29116e-01   4.79669e-03 ADIIS/DIIS
   @DF-RHF iter   3: -2778.12569089857561   -1.21863e-01   3.26623e-04 ADIIS/DIIS
   @DF-RHF iter   4: -2778.12853874588836   -2.84785e-03   1.14487e-04 ADIIS/DIIS
   @DF-RHF iter   5: -2778.12891223506222   -3.73489e-04   3.60343e-05 DIIS
   @DF-RHF iter   6: -2778.12896821592813   -5.59809e-05   1.60272e-05 DIIS
   @DF-RHF iter   7: -2778.12897864050319   -1.04246e-05   6.56982e-06 DIIS
   @DF-RHF iter   8: -2778.12898085140478   -2.21090e-06   1.80360e-06 DIIS
   @DF-RHF iter   9: -2778.12898108527406   -2.33869e-07   7.49937e-07 DIIS
   @DF-RHF iter  10: -2778.12898111832010   -3.30460e-08   3.46944e-07 DIIS
   @DF-RHF iter  11: -2778.12898112625135   -7.93125e-09   1.52142e-07 DIIS
   @DF-RHF iter  12: -2778.12898112789480   -1.64346e-09   6.05289e-08 DIIS
   @DF-RHF iter  13: -2778.12898112808443   -1.89630e-10   2.61704e-08 DIIS
   @DF-RHF iter  14: -2778.12898112813991   -5.54792e-11   1.22559e-08 DIIS
   @DF-RHF iter  15: -2778.12898112814673   -6.82121e-12   4.28750e-09 DIIS
  Energy and wave function converged.


  ==> Post-Iterations <==

    Orbital Energies [Eh]
    ---------------------

    Doubly Occupied:                                                      

       1A   -460.796598     2A    -60.623448     3A    -54.240304  
       4A    -54.239651     5A    -54.238584     6A    -15.587649  
       7A    -15.562845     8A    -11.325469     9A    -11.262869  
      10A    -11.234441    11A    -11.232808    12A    -11.230979  
      13A    -11.227509    14A    -11.226101    15A     -8.905560  
      16A     -6.644454    17A     -6.640625    18A     -6.633728  
      19A     -2.635552    20A     -2.633763    21A     -2.625582  
      22A     -2.621181    23A     -2.620091    24A     -1.277704  
      25A     -1.168959    26A     -1.152814    27A     -1.029036  
      28A     -1.015536    29A     -0.917113    30A     -0.831368  
      31A     -0.821589    32A     -0.781500    33A     -0.737191  
      34A     -0.697209    35A     -0.657038    36A     -0.626073  
      37A     -0.624290    38A     -0.591743    39A     -0.565309  
      40A     -0.554543    41A     -0.549789    42A     -0.509490  
      43A     -0.496844    44A     -0.463601    45A     -0.422521  
      46A     -0.384652    47A     -0.360814    48A     -0.334141  
      49A     -0.279476  

    Virtual:                                                              

      50A      0.138250    51A      0.139605    52A      0.159041  
      53A      0.194545    54A      0.212695    55A      0.256813  
      56A      0.283383    57A      0.295606    58A      0.327000  
      59A      0.341229    60A      0.350893    61A      0.360438  
      62A      0.372815    63A      0.389548    64A      0.402832  
      65A      0.441357    66A      0.447457    67A      0.457867  
      68A      0.482612    69A      0.514250    70A      0.530071  
      71A      0.568807    72A      0.648282    73A      0.670608  
      74A      0.677217    75A      0.682977    76A      0.697225  
      77A      0.716488    78A      0.728663    79A      0.757694  
      80A      0.765167    81A      0.791964    82A      0.808733  
      83A      0.810043    84A      0.811901    85A      0.817514  
      86A      0.828509    87A      0.837812    88A      0.846525  
      89A      0.854081    90A      0.883595    91A      0.900827  
      92A      0.913592    93A      0.937160    94A      0.962649  
      95A      0.965909    96A      0.988647    97A      1.033040  
      98A      1.067302    99A      1.092316   100A      1.129324  
     101A      1.140576   102A      1.166455   103A      1.172258  
     104A      1.177637   105A      1.189225   106A      1.201083  
     107A      1.225453   108A      1.243042   109A      1.251134  
     110A      1.260976   111A      1.271207   112A      1.282624  
     113A      1.299886   114A      1.331286   115A      1.368164  
     116A      1.383580   117A      1.414998   118A      1.474746  
     119A      1.509692   120A      1.511806   121A      1.516244  
     122A      1.551471   123A      1.656708   124A      1.680289  
     125A      1.746667   126A      1.762135   127A      1.766172  
     128A      1.772019   129A      1.783123   130A      1.794377  
     131A      1.849784   132A      1.857353   133A      2.008485  
     134A      2.071507   135A      2.079061   136A      2.099130  
     137A      2.137551   138A      2.152163   139A      2.243627  
     140A      2.268308   141A      2.341089   142A      2.374655  
     143A      2.403459   144A      2.422093   145A      2.456665  
     146A      2.459594   147A      2.463448   148A      2.476843  
     149A      2.525036   150A      2.604323   151A      2.632027  
     152A      2.639734   153A      2.643012   154A      2.678402  
     155A      2.787344   156A      2.842510   157A      2.902627  
     158A      2.924772   159A      2.986096   160A      3.012705  
     161A      3.027911   162A      3.040609   163A      3.068840  
     164A      3.094953   165A      3.119605   166A      3.149172  
     167A      3.303918   168A      3.366720   169A      3.603500  
     170A      3.623200   171A      3.716318   172A      3.775872  
     173A      3.841439   174A      3.908251   175A     13.820073  
     176A     14.239465   177A     14.246815   178A     14.355586  
     179A     14.711309   180A     14.737643   181A     15.154517  
     182A     19.850661   183A     20.018236  

    Final Occupation by Irrep:
              A 
    DOCC [    49 ]

  @DF-RHF Final Energy: -2778.12898112814673

   => Energetics <=

    Nuclear Repulsion Energy =            754.2171077135667474
    One-Electron Energy =               -5357.0119021765131038
    Two-Electron Energy =                1824.6658133348000774
    Total Energy =                      -2778.1289811281467337

Computation Completed


Properties will be evaluated at   0.000000,   0.000000,   0.000000 [a0]

Properties computed using the SCF density matrix


 Multipole Moments:

 ------------------------------------------------------------------------------------
     Multipole            Electronic (a.u.)      Nuclear  (a.u.)        Total (a.u.)
 ------------------------------------------------------------------------------------

 L = 1.  Multiply by 2.5417464519 to convert [e a0] to [Debye]
 Dipole X            :          8.4673878           -7.5355297            0.9318581
 Dipole Y            :         14.3845251          -14.1116583            0.2728668
 Dipole Z            :         -4.7836302            5.5184587            0.7348285
 Magnitude           :                                                    1.2176981

 ------------------------------------------------------------------------------------

*** tstop() called on LAPTOP-VQ1QITOU at Thu Nov  3 05:16:41 2022
Module time:
	user time   =       4.93 seconds =       0.08 minutes
	system time =       0.23 seconds =       0.00 minutes
	total time  =          5 seconds =       0.08 minutes
Total time:
	user time   =       4.93 seconds =       0.08 minutes
	system time =       0.23 seconds =       0.00 minutes
	total time  =          5 seconds =       0.08 minutes

*** tstart() called on LAPTOP-VQ1QITOU
*** at Thu Nov  3 05:16:41 2022


         ------------------------------------------------------------
                                   SCF GRAD                          
                          Rob Parrish, Justin Turney,                
                       Andy Simmonett, and Alex Sokolov              
         ------------------------------------------------------------

  ==> Geometry <==

    Molecular point group: c1
    Full point group: C1

    Geometry (in Angstrom), charge = 0, multiplicity = 1:

       Center              X                  Y                   Z               Mass       
    ------------   -----------------  -----------------  -----------------  -----------------
         C           -0.982669699724    -0.237178346654     0.048840332285    12.000000000000
         C           -0.903199699724    -1.619248346654     0.120150332285    12.000000000000
         C           -2.056649699724    -2.359718346654     0.332270332285    12.000000000000
         C           -3.284569699724    -1.735108346654     0.471540332285    12.000000000000
         C           -3.357939699724    -0.352998346654     0.396620332285    12.000000000000
         C           -2.212559699724     0.395071653346     0.186760332285    12.000000000000
         N            1.811440300276    -0.458798346654    -0.314779667715    14.003074004430
         SE           0.542970300276     0.875401653346    -0.252869667715    79.916521800000
         H            4.492660300276     0.976761653346     0.674450332285     1.007825032230
         H            3.720360300276    -0.995018346654    -0.135949667715     1.007825032230
         C            3.011930300276    -0.185018346654    -0.057719667715    12.000000000000
         N            3.583620300276     1.011821653346     0.268740332285    14.003074004430
         H            2.992740300276     1.722421653346     0.648150332285     1.007825032230
         H           -4.172619699724    -2.316158346654     0.635270332285     1.007825032230
         H           -2.282239699724     1.466621653346     0.131150332285     1.007825032230
         H            0.043810300276    -2.105918346654     0.008140332285     1.007825032230
         H           -1.990729699724    -3.430678346654     0.386880332285     1.007825032230
         H           -4.304079699724     0.144771653346     0.501220332285     1.007825032230

  Nuclear repulsion =  754.217107713566747

  ==> Basis Set <==

  Basis Set: DEF2-MSVP
    Blend: DEF2-MSVP
    Number of shells: 91
    Number of basis functions: 183
    Number of Cartesian functions: 195
    Spherical Harmonics?: true
    Max angular momentum: 2

  ==> DFJKGrad: Density-Fitted SCF Gradients <==

    Gradient:                    1
    J tasked:                  Yes
    K tasked:                  Yes
    wK tasked:                  No
    OpenMP threads:              1
    Integrals threads:           1
    Memory [MiB]:              375
    Schwarz Cutoff:          1E-12
    Fitting Condition:       1E-10

   => Auxiliary Basis Set <=

  Basis Set: (DEF2-MSVP AUX)
    Blend: DEF2-UNIVERSAL-JKFIT
    Number of shells: 333
    Number of basis functions: 1089
    Number of Cartesian functions: 1340
    Spherical Harmonics?: true
    Max angular momentum: 5


  -Total Gradient:
     Atom            X                  Y                   Z
    ------   -----------------  -----------------  -----------------
       1        0.000185682351    -0.000072266127    -0.000081819654
       2        0.000093700404     0.000124036912    -0.000017038134
       3        0.000050359465    -0.000024618189     0.000014007366
       4       -0.000029158397     0.000062061081     0.000011199825
       5       -0.000088928469    -0.000046397363     0.000001525032
       6        0.000031897181     0.000093604355    -0.000009852750
       7       -0.000075988097    -0.000067207403     0.000040029179
       8       -0.000311611662    -0.000018662552     0.000132064738
       9        0.000064036671    -0.000010004893    -0.000003204660
      10        0.000064140201     0.000037649511    -0.000021279818
      11        0.000051715126    -0.000046938599    -0.000047051303
      12        0.000075641259    -0.000039456475    -0.000015871259
      13       -0.000042433951     0.000078637040     0.000022480921
      14        0.000049046010    -0.000005573578     0.000005164874
      15       -0.000010236608     0.000011927981     0.000001129226
      16       -0.000011468536    -0.000082046178     0.000003617114
      17       -0.000059017970    -0.000005485495     0.000006850457
      18       -0.000037375004     0.000010740042    -0.000041951127


*** tstop() called on LAPTOP-VQ1QITOU at Thu Nov  3 05:16:45 2022
Module time:
	user time   =       4.15 seconds =       0.07 minutes
	system time =       0.10 seconds =       0.00 minutes
	total time  =          4 seconds =       0.07 minutes
Total time:
	user time   =       9.08 seconds =       0.15 minutes
	system time =       0.33 seconds =       0.01 minutes
	total time  =          9 seconds =       0.15 minutes

			-----------------------------------------
			 OPTKING 2.0: for geometry optimizations 
			  - R.A. King,  Bethel University        
			-----------------------------------------

	Internal coordinates to be generated automatically.
	Detected frag 1 with atoms:  1 2 3 4 5 6 7 8 9 10 11 12 13 14 15 16 17 18
	---Fragment 1 Bond Connectivity---
	 1 : 2 6 8
	 2 : 1 3 16
	 3 : 2 4 17
	 4 : 3 5 14
	 5 : 4 6 18
	 6 : 1 5 15
	 7 : 8 11
	 8 : 1 7
	 9 : 12
	 10 : 11
	 11 : 7 10 12
	 12 : 9 11 13
	 13 : 12
	 14 : 4
	 15 : 6
	 16 : 2
	 17 : 3
	 18 : 5

	---Fragment 1 Geometry and Gradient---
	 C          -1.8569766043       -0.4482021181        0.0922948519
	 C          -1.7068000691       -3.0599359043        0.2270512219
	 C          -3.8865046685       -4.4592214084        0.6278999276
	 C          -6.2069371725       -3.2788795732        0.8910820851
	 C          -6.3455863783       -0.6670701979        0.7495038038
	 C          -4.1811318687        0.7465772248        0.3529258791
	 N           3.4231260601       -0.8670032220       -0.5948473618
	 SE          1.0260651618        1.6542693746       -0.4778544174
	 H           8.4898975422        1.8458120147        1.2745264132
	 H           7.0304620555       -1.8803121650       -0.2569076388
	 C           5.6917233765       -0.3496340034       -0.1090743640
	 N           6.7720609052        1.9120658126        0.5078456269
	 H           5.6554595321        3.2549051974        1.2248266161
	 H          -7.8851084582       -4.3769049384        1.2004869436
	 H          -4.3128079851        2.7715132545        0.2478382093
	 H           0.0827894690       -3.9796089178        0.0153829986
	 H          -3.7619339223       -6.4830424997        0.7310978713
	 H          -8.1335318546        0.2735787756        0.9471691565
	             0.0001856824       -0.0000722661       -0.0000818197
	             0.0000937004        0.0001240369       -0.0000170381
	             0.0000503595       -0.0000246182        0.0000140074
	            -0.0000291584        0.0000620611        0.0000111998
	            -0.0000889285       -0.0000463974        0.0000015250
	             0.0000318972        0.0000936044       -0.0000098528
	            -0.0000759881       -0.0000672074        0.0000400292
	            -0.0003116117       -0.0000186626        0.0001320647
	             0.0000640367       -0.0000100049       -0.0000032047
	             0.0000641402        0.0000376495       -0.0000212798
	             0.0000517151       -0.0000469386       -0.0000470513
	             0.0000756413       -0.0000394565       -0.0000158713
	            -0.0000424340        0.0000786370        0.0000224809
	             0.0000490460       -0.0000055736        0.0000051649
	            -0.0000102366        0.0000119280        0.0000011292
	            -0.0000114685       -0.0000820462        0.0000036171
	            -0.0000590180       -0.0000054855        0.0000068505
	            -0.0000373750        0.0000107400       -0.0000419511

	Previous optimization step data not found.  Starting new optimization.

	---Fragment 1 Intrafragment Coordinates---
	 - Coordinate -           - BOHR/RAD -       - ANG/DEG -
	 R(1,2)           =         2.619516	       1.386188
	 R(1,6)           =         2.626238	       1.389745
	 R(1,8)           =         3.613501	       1.912182
	 R(2,3)           =         2.621029	       1.386989
	 R(2,16)          =         2.023174	       1.070618
	 R(3,4)           =         2.616654	       1.384674
	 R(3,17)          =         2.030276	       1.074376
	 R(4,5)           =         2.619316	       1.386082
	 R(4,14)          =         2.029199	       1.073806
	 R(5,6)           =         2.615442	       1.384032
	 R(5,18)          =         2.029936	       1.074196
	 R(6,15)          =         2.031932	       1.075252
	 R(7,8)           =         3.480863	       1.841993
	 R(7,11)          =         2.377011	       1.257860
	 R(9,12)          =         1.882326	       0.996084
	 R(10,11)         =         2.038885	       1.078931
	 R(11,12)         =         2.581280	       1.365954
	 R(12,13)         =         1.887877	       0.999021
	 B(1,2,3)         =         2.085726	     119.503283
	 B(1,2,16)        =         2.092719	     119.903964
	 B(1,6,5)         =         2.096162	     120.101246
	 B(1,6,15)        =         2.100862	     120.370526
	 B(1,8,7)         =         1.704492	      97.660171
	 B(2,1,6)         =         2.093493	     119.948288
	 B(2,1,8)         =         2.144189	     122.852986
	 B(2,3,4)         =         2.108351	     120.799627
	 B(2,3,17)        =         2.081647	     119.269603
	 B(3,2,16)        =         2.104735	     120.592407
	 B(3,4,5)         =         2.084378	     119.426059
	 B(3,4,14)        =         2.099756	     120.307137
	 B(4,3,17)        =         2.093186	     119.930711
	 B(4,5,6)         =         2.098258	     120.221306
	 B(4,5,18)        =         2.098349	     120.226542
	 B(5,4,14)        =         2.099051	     120.266781
	 B(5,6,15)        =         2.086161	     119.528224
	 B(6,1,8)         =         2.045458	     117.196111
	 B(6,5,18)        =         2.086579	     119.552151
	 B(7,11,10)       =         2.035810	     116.643338
	 B(7,11,12)       =         2.263980	     129.716520
	 B(8,7,11)        =         2.085997	     119.518851
	 B(9,12,11)       =         2.035837	     116.644866
	 B(9,12,13)       =         1.993385	     114.212536
	 B(10,11,12)      =         1.982660	     113.598055
	 B(11,12,13)      =         2.056078	     117.804610
	 D(1,2,3,4)       =         0.001521	       0.087163
	 D(1,2,3,17)      =         3.141575	     179.998981
	 D(1,6,5,4)       =         0.001050	       0.060171
	 D(1,6,5,18)      =        -3.140740	    -179.951125
	 D(1,8,7,11)      =        -2.729361	    -156.380880
	 D(2,1,6,5)       =         0.001201	       0.068794
	 D(2,1,6,15)      =        -3.140022	    -179.910027
	 D(2,1,8,7)       =        -0.028328	      -1.623085
	 D(2,3,4,5)       =         0.000710	       0.040687
	 D(2,3,4,14)      =         3.141322	     179.984495
	 D(3,2,1,6)       =        -0.002469	      -0.141479
	 D(3,2,1,8)       =        -3.133500	    -179.536338
	 D(3,4,5,6)       =        -0.001997	      -0.114409
	 D(3,4,5,18)      =         3.139794	     179.896964
	 D(4,3,2,16)      =        -3.136336	    -179.698810
	 D(4,5,6,15)      =        -3.140909	    -179.960829
	 D(5,4,3,17)      =        -3.139333	    -179.870552
	 D(5,6,1,8)       =         3.132818	     179.497252
	 D(6,1,2,16)      =         3.135414	     179.645988
	 D(6,1,8,7)       =         3.123553	     178.966427
	 D(6,5,4,14)      =         3.140576	     179.941760
	 D(7,11,12,9)     =         2.857696	     163.733946
	 D(7,11,12,13)    =         0.386889	      22.167113
	 D(8,1,2,16)      =         0.004383	       0.251130
	 D(8,1,6,15)      =        -0.008405	      -0.481570
	 D(8,7,11,10)     =        -3.111187	    -178.257891
	 D(8,7,11,12)     =        -0.013845	      -0.793249
	 D(9,12,11,10)    =        -0.327056	     -18.738953
	 D(10,11,12,13)   =        -2.797864	    -160.305785
	 D(14,4,3,17)     =         0.001279	       0.073257
	 D(14,4,5,18)     =        -0.000818	      -0.046868
	 D(15,6,5,18)     =         0.000487	       0.027875
	 D(16,2,3,17)     =         0.003718	       0.213008
	 R(4,8)           =         8.861505	       4.689306
	 R(1,X)           =        -1.856977	      -0.982670
	 R(1,Y)           =        -0.448202	      -0.237178
	 R(1,Z)           =         0.092295	       0.048840
	 R(2,X)           =        -1.706800	      -0.903200
	 R(2,Y)           =        -3.059936	      -1.619248
	 R(2,Z)           =         0.227051	       0.120150
	 R(3,X)           =        -3.886505	      -2.056650
	 R(3,Y)           =        -4.459221	      -2.359718
	 R(3,Z)           =         0.627900	       0.332270
	 R(4,X)           =        -6.206937	      -3.284570
	 R(4,Y)           =        -3.278880	      -1.735108
	 R(4,Z)           =         0.891082	       0.471540
	 R(5,X)           =        -6.345586	      -3.357940
	 R(5,Y)           =        -0.667070	      -0.352998
	 R(5,Z)           =         0.749504	       0.396620
	 R(6,X)           =        -4.181132	      -2.212560
	 R(6,Y)           =         0.746577	       0.395072
	 R(6,Z)           =         0.352926	       0.186760
	 R(7,X)           =         3.423126	       1.811440
	 R(7,Y)           =        -0.867003	      -0.458798
	 R(7,Z)           =        -0.594847	      -0.314780
	 R(8,X)           =         1.026065	       0.542970
	 R(8,Y)           =         1.654269	       0.875402
	 R(8,Z)           =        -0.477854	      -0.252870
	 R(9,X)           =         8.489898	       4.492660
	 R(9,Y)           =         1.845812	       0.976762
	 R(9,Z)           =         1.274526	       0.674450
	 R(10,X)          =         7.030462	       3.720360
	 R(10,Y)          =        -1.880312	      -0.995018
	 R(10,Z)          =        -0.256908	      -0.135950
	 R(11,X)          =         5.691723	       3.011930
	 R(11,Y)          =        -0.349634	      -0.185018
	 R(11,Z)          =        -0.109074	      -0.057720
	 R(12,X)          =         6.772061	       3.583620
	 R(12,Y)          =         1.912066	       1.011822
	 R(12,Z)          =         0.507846	       0.268740
	 R(13,X)          =         5.655460	       2.992740
	 R(13,Y)          =         3.254905	       1.722422
	 R(13,Z)          =         1.224827	       0.648150
	 R(14,X)          =        -7.885108	      -4.172620
	 R(14,Y)          =        -4.376905	      -2.316158
	 R(14,Z)          =         1.200487	       0.635270
	 R(15,X)          =        -4.312808	      -2.282240
	 R(15,Y)          =         2.771513	       1.466622
	 R(15,Z)          =         0.247838	       0.131150
	 R(16,X)          =         0.082789	       0.043810
	 R(16,Y)          =        -3.979609	      -2.105918
	 R(16,Z)          =         0.015383	       0.008140
	 R(17,X)          =        -3.761934	      -1.990730
	 R(17,Y)          =        -6.483042	      -3.430678
	 R(17,Z)          =         0.731098	       0.386880
	 R(18,X)          =        -8.133532	      -4.304080
	 R(18,Y)          =         0.273579	       0.144772
	 R(18,Z)          =         0.947169	       0.501220

	Current energy   :     -2778.1289811281

	Generating empirical Hessian (Schlegel '84) for each fragment.
	Taking RFO optimization step.
	Going to follow RFO solution 1.
	Using RFO vector 1.
	Norm of target step-size    0.00240
	Projected energy change by RFO approximation:        -0.0000005155

	Back-transformation to cartesian coordinates...
	Successfully converged to displaced geometry.

	--- Internal Coordinate Step in ANG or DEG, aJ/ANG or AJ/DEG ---
	 ---------------------------------------------------------------------------
	   Coordinate                Previous        Force       Change         New 
	   ----------                --------       ------       ------       ------
	    1 R(1,2)          =      1.386188     0.000346     0.000081     1.386269
	    2 R(1,6)          =      1.389745    -0.000447    -0.000076     1.389669
	    3 R(1,8)          =      1.912182     0.000959     0.000236     1.912418
	    4 R(2,3)          =      1.386989    -0.000304    -0.000032     1.386957
	    5 R(2,16)         =      1.070618     0.000033    -0.000005     1.070613
	    6 R(3,4)          =      1.384674    -0.000281    -0.000044     1.384630
	    7 R(3,17)         =      1.074376    -0.000036    -0.000008     1.074368
	    8 R(4,5)          =      1.386082     0.000088     0.000026     1.386108
	    9 R(4,14)         =      1.073806     0.000225     0.000029     1.073835
	   10 R(5,6)          =      1.384032    -0.000441    -0.000069     1.383963
	   11 R(5,18)         =      1.074196    -0.000007    -0.000018     1.074178
	   12 R(6,15)         =      1.075252     0.000020    -0.000009     1.075243
	   13 R(7,8)          =      1.841993    -0.000525    -0.000091     1.841902
	   14 R(7,11)         =      1.257860    -0.000474    -0.000075     1.257785
	   15 R(9,12)         =      0.996084    -0.000134    -0.000037     0.996047
	   16 R(10,11)        =      1.078931     0.000041    -0.000016     1.078916
	   17 R(11,12)        =      1.365954    -0.000136    -0.000044     1.365911
	   18 R(12,13)        =      0.999021    -0.000477    -0.000096     0.998925
	   19 B(1,2,3)        =    119.503283     0.000000     0.007718   119.511001
	   20 B(1,2,16)       =    119.903964    -0.000003    -0.017626   119.886338
	   21 B(1,6,5)        =    120.101246     0.000000     0.002124   120.103370
	   22 B(1,6,15)       =    120.370526    -0.000001    -0.004795   120.365732
	   23 B(1,8,7)        =     97.660171     0.000002     0.004784    97.664955
	   24 B(2,1,6)        =    119.948288    -0.000001    -0.008990   119.939298
	   25 B(2,1,8)        =    122.852986    -0.000003    -0.004974   122.848012
	   26 B(2,3,4)        =    120.799627    -0.000001    -0.002350   120.797277
	   27 B(2,3,17)       =    119.269603    -0.000001    -0.008628   119.260975
	   28 B(3,2,16)       =    120.592407     0.000003     0.009909   120.602316
	   29 B(3,4,5)        =    119.426059     0.000000    -0.005616   119.420443
	   30 B(3,4,14)       =    120.307137     0.000001     0.008167   120.315303
	   31 B(4,3,17)       =    119.930711     0.000002     0.010988   119.941698
	   32 B(4,5,6)        =    120.221306     0.000001     0.007113   120.228418
	   33 B(4,5,18)       =    120.226542    -0.000001    -0.003903   120.222639
	   34 B(5,4,14)       =    120.266781    -0.000001    -0.002548   120.264233
	   35 B(5,6,15)       =    119.528224     0.000001     0.002672   119.530896
	   36 B(6,1,8)        =    117.196111     0.000003     0.013704   117.209816
	   37 B(6,5,18)       =    119.552151     0.000000    -0.003210   119.548942
	   38 B(7,11,10)      =    116.643338    -0.000002    -0.015072   116.628267
	   39 B(7,11,12)      =    129.716520     0.000000     0.000981   129.717501
	   40 B(8,7,11)       =    119.518851    -0.000001    -0.006573   119.512278
	   41 B(9,12,11)      =    116.644866    -0.000000    -0.003696   116.641169
	   42 B(9,12,13)      =    114.212536    -0.000000    -0.003887   114.208649
	   43 B(10,11,12)     =    113.598055     0.000002     0.013437   113.611492
	   44 B(11,12,13)     =    117.804610     0.000000    -0.000146   117.804464
	   45 D(1,2,3,4)      =      0.087163    -0.000000     0.000093     0.087256
	   46 D(1,2,3,17)     =    179.998981    -0.000000     0.007578   180.006560
	   47 D(1,6,5,4)      =      0.060171    -0.000000    -0.011095     0.049076
	   48 D(1,6,5,18)     =   -179.951125    -0.000000    -0.012152  -179.963277
	   49 D(1,8,7,11)     =   -156.380880     0.000000     0.030908  -156.349972
	   50 D(2,1,6,5)      =      0.068794     0.000000     0.010828     0.079623
	   51 D(2,1,6,15)     =   -179.910027     0.000000     0.007805  -179.902222
	   52 D(2,1,8,7)      =     -1.623085    -0.000000    -0.025256    -1.648341
	   53 D(2,3,4,5)      =      0.040687    -0.000000    -0.000319     0.040368
	   54 D(2,3,4,14)     =    179.984495     0.000000     0.002802   179.987298
	   55 D(3,2,1,6)      =     -0.141479     0.000000    -0.005329    -0.146808
	   56 D(3,2,1,8)      =   -179.536338     0.000000     0.023866  -179.512472
	   57 D(3,4,5,6)      =     -0.114409     0.000000     0.005817    -0.108591
	   58 D(3,4,5,18)     =    179.896964     0.000000     0.006881   179.903845
	   59 D(4,3,2,16)     =   -179.698810     0.000000     0.000112  -179.698698
	   60 D(4,5,6,15)     =   -179.960829    -0.000000    -0.008098  -179.968927
	   61 D(5,4,3,17)     =   -179.870552    -0.000000    -0.007838  -179.878390
	   62 D(5,6,1,8)      =    179.497252    -0.000000    -0.016853   179.480399
	   63 D(6,1,2,16)     =    179.645988    -0.000000    -0.005289   179.640699
	   64 D(6,1,8,7)      =    178.966427    -0.000000     0.003317   178.969744
	   65 D(6,5,4,14)     =    179.941760     0.000000     0.002692   179.944451
	   66 D(7,11,12,9)    =    163.733946     0.000000     0.015601   163.749547
	   67 D(7,11,12,13)   =     22.167113     0.000000     0.028499    22.195613
	   68 D(8,1,2,16)     =      0.251130     0.000000     0.023906     0.275036
	   69 D(8,1,6,15)     =     -0.481570    -0.000000    -0.019876    -0.501446
	   70 D(8,7,11,10)    =   -178.257891     0.000000     0.002229  -178.255662
	   71 D(8,7,11,12)    =     -0.793249    -0.000000    -0.017087    -0.810335
	   72 D(9,12,11,10)   =    -18.738953     0.000000    -0.003823   -18.742776
	   73 D(10,11,12,13)  =   -160.305785     0.000000     0.009076  -160.296709
	   74 D(14,4,3,17)    =      0.073257    -0.000000    -0.004717     0.068540
	   75 D(14,4,5,18)    =     -0.046868     0.000000     0.003756    -0.043112
	   76 D(15,6,5,18)    =      0.027875    -0.000000    -0.009155     0.018720
	   77 D(16,2,3,17)    =      0.213008     0.000000     0.007598     0.220606
	   78 R(4,8)          =      4.689306     0.000604     0.000344     4.689651
	   79 R(1,X)          =     -0.982670    -0.000416    -0.000003    -0.982673
	   80 R(1,Y)          =     -0.237178     0.000198     0.000117    -0.237062
	   81 R(1,Z)          =      0.048840     0.000071     0.000128     0.048968
	   82 R(2,X)          =     -0.903200    -0.000389    -0.000118    -0.903317
	   83 R(2,Y)          =     -1.619248    -0.000147     0.000025    -1.619224
	   84 R(2,Z)          =      0.120150     0.000087     0.000040     0.120190
	   85 R(3,X)          =     -2.056650    -0.000098    -0.000059    -2.056709
	   86 R(3,Y)          =     -2.359718    -0.000060    -0.000032    -2.359750
	   87 R(3,Z)          =      0.332270    -0.000014    -0.000048     0.332222
	   88 R(4,X)          =     -3.284570     0.000215    -0.000028    -3.284597
	   89 R(4,Y)          =     -1.735108    -0.000065    -0.000073    -1.735181
	   90 R(4,Z)          =      0.471540    -0.000030    -0.000027     0.471514
	   91 R(5,X)          =     -3.357940     0.000328     0.000097    -3.357843
	   92 R(5,Y)          =     -0.352998     0.000035    -0.000035    -0.353033
	   93 R(5,Z)          =      0.396620     0.000073     0.000068     0.396689
	   94 R(6,X)          =     -2.212560    -0.000087     0.000002    -2.212558
	   95 R(6,Y)          =      0.395072    -0.000145    -0.000023     0.395049
	   96 R(6,Z)          =      0.186760     0.000076     0.000049     0.186809
	   97 R(7,X)          =      1.811440     0.000406     0.000158     1.811598
	   98 R(7,Y)          =     -0.458798     0.000137    -0.000034    -0.458832
	   99 R(7,Z)          =     -0.314780    -0.000172    -0.000221    -0.315001
	  100 R(8,X)          =      0.542970     0.000890     0.000282     0.543252
	  101 R(8,Y)          =      0.875402    -0.000111    -0.000029     0.875372
	  102 R(8,Z)          =     -0.252870    -0.000545    -0.000464    -0.253333
	  103 R(9,X)          =      4.492660    -0.000435    -0.000173     4.492488
	  104 R(9,Y)          =      0.976762     0.000061     0.000052     0.976813
	  105 R(9,Z)          =      0.674450     0.000146     0.000083     0.674533
	  106 R(10,X)         =      3.720360    -0.000392    -0.000149     3.720211
	  107 R(10,Y)         =     -0.995018    -0.000136    -0.000113    -0.995131
	  108 R(10,Z)         =     -0.135950     0.000175     0.000159    -0.135791
	  109 R(11,X)         =      3.011930    -0.000145     0.000000     3.011931
	  110 R(11,Y)         =     -0.185018     0.000144     0.000002    -0.185016
	  111 R(11,Z)         =     -0.057720     0.000076     0.000108    -0.057611
	  112 R(12,X)         =      3.583620    -0.000261    -0.000099     3.583521
	  113 R(12,Y)         =      1.011822     0.000043     0.000028     1.011849
	  114 R(12,Z)         =      0.268740     0.000083     0.000006     0.268747
	  115 R(13,X)         =      2.992740     0.000017    -0.000074     2.992666
	  116 R(13,Y)         =      1.722422    -0.000280    -0.000086     1.722335
	  117 R(13,Z)         =      0.648150    -0.000136     0.000006     0.648156
	  118 R(14,X)         =     -4.172620    -0.000149    -0.000127    -4.172747
	  119 R(14,Y)         =     -2.316158     0.000079     0.000023    -2.316136
	  120 R(14,Z)         =      0.635270    -0.000019    -0.000037     0.635233
	  121 R(15,X)         =     -2.282240     0.000001    -0.000001    -2.282240
	  122 R(15,Y)         =      1.466622    -0.000122    -0.000034     1.466587
	  123 R(15,Z)         =      0.131150     0.000031     0.000006     0.131156
	  124 R(16,X)         =      0.043810    -0.000075    -0.000015     0.043796
	  125 R(16,Y)         =     -2.105918     0.000419     0.000247    -2.105672
	  126 R(16,Z)         =      0.008140    -0.000029    -0.000009     0.008132
	  127 R(17,X)         =     -1.990730     0.000284     0.000169    -1.990561
	  128 R(17,Y)         =     -3.430678    -0.000004    -0.000010    -3.430688
	  129 R(17,Z)         =      0.386880    -0.000084    -0.000043     0.386838
	  130 R(18,X)         =     -4.304080     0.000308     0.000137    -4.303943
	  131 R(18,Y)         =      0.144772    -0.000047    -0.000024     0.144748
	  132 R(18,Z)         =      0.501220     0.000214     0.000194     0.501415
	 ---------------------------------------------------------------------------
	Successfully symmetrized geometry.

  ==> Convergence Check <==

  Measures of convergence in internal coordinates in au.
  Criteria marked as inactive (o), active & met (*), and active & unmet ( ).
  --------------------------------------------------------------------------------------------- ~
   Step     Total Energy     Delta E     MAX Force     RMS Force      MAX Disp      RMS Disp    ~
  --------------------------------------------------------------------------------------------- ~
    Convergence Criteria    1.00e-06 *    3.00e-04 *             o    1.20e-03 *             o  ~
  --------------------------------------------------------------------------------------------- ~
      1   -2778.12898113   -2.78e+03      1.16e-04 *    2.75e-05 o    8.76e-04 *    2.09e-04 o  ~
  ---------------------------------------------------------------------------------------------


  **** Optimization is complete! (in 1 steps) ****

  ==> Optimization Summary <==

  Measures of convergence in internal coordinates in au.
  --------------------------------------------------------------------------------------------------------------- ~
   Step         Total Energy             Delta E       MAX Force       RMS Force        MAX Disp        RMS Disp  ~
  --------------------------------------------------------------------------------------------------------------- ~
      1   -2778.128981128147  -2778.128981128147      0.00011640      0.00002746      0.00087605      0.00020905  ~
  --------------------------------------------------------------------------------------------------------------- ~

	Writing optimization data to binary file.
	Final energy is  -2778.1289811281467
	Final (previous) structure:
	Cartesian Geometry (in Angstrom)
	    C    -0.9826696959  -0.2371783457   0.0488403321
	    C    -0.9031996962  -1.6192483403   0.1201503318
	    C    -2.0566496916  -2.3597183374   0.3322703310
	    C    -3.2845696868  -1.7351083398   0.4715403304
	    C    -3.3579396865  -0.3529983453   0.3966203307
	    C    -2.2125596910   0.3950716518   0.1867603316
	    N     1.8114402932  -0.4587983449  -0.3147796665
	   SE     0.5429702981   0.8754016499  -0.2528696667
	    H     4.4926602826   0.9767616495   0.6744503296
	    H     3.7203602857  -0.9950183427  -0.1359496672
	    C     3.0119302884  -0.1850183459  -0.0577196675
	    N     3.5836202862   1.0118216494   0.2687403312
	    H     2.9927402885   1.7224216466   0.6481503297
	    H    -4.1726196833  -2.3161583376   0.6352703298
	    H    -2.2822396908   1.4666216476   0.1311503318
	    H     0.0438103001  -2.1059183384   0.0081403323
	    H    -1.9907296919  -3.4306783332   0.3868803308
	    H    -4.3040796828   0.1447716528   0.5012203303
	Saving final (previous) structure.
	Cleaning optimization helper files.
			--------------------------
			 OPTKING Finished Execution 
			--------------------------

    Final optimized geometry and variables:
    Molecular point group: c1
    Full point group: C1

    Geometry (in Angstrom), charge = 0, multiplicity = 1:

    C           -0.982669699724    -0.237178346654     0.048840332285
    C           -0.903199699724    -1.619248346654     0.120150332285
    C           -2.056649699724    -2.359718346654     0.332270332285
    C           -3.284569699724    -1.735108346654     0.471540332285
    C           -3.357939699724    -0.352998346654     0.396620332285
    C           -2.212559699724     0.395071653346     0.186760332285
    N            1.811440300276    -0.458798346654    -0.314779667715
    SE           0.542970300276     0.875401653346    -0.252869667715
    H            4.492660300276     0.976761653346     0.674450332285
    H            3.720360300276    -0.995018346654    -0.135949667715
    C            3.011930300276    -0.185018346654    -0.057719667715
    N            3.583620300276     1.011821653346     0.268740332285
    H            2.992740300276     1.722421653346     0.648150332285
    H           -4.172619699724    -2.316158346654     0.635270332285
    H           -2.282239699724     1.466621653346     0.131150332285
    H            0.043810300276    -2.105918346654     0.008140332285
    H           -1.990729699724    -3.430678346654     0.386880332285
    H           -4.304079699724     0.144771653346     0.501220332285

	Removing binary optimization data file.
	Cleaning optimization helper files.

    Psi4 stopped on: Thursday, 03 November 2022 05:16AM
    Psi4 wall time for execution: 0:00:09.56

*** Psi4 exiting successfully. Buy a developer a beer!
